# vtk DataFile Version 3.0
vtk output
ASCII
DATASET POLYDATA
POINTS 65956 float
0 0 0 0 0 0 0 0 0 
0 0 0 0 0 0 0 0 0 
0 0 0 0 0 0 0 0 0 
0 0 0 0 0 0 0 0 0 
0 0 0 0 0 0 0 0 0 
0 0 0 0 0 0 0 0 0 
0 0 0 0 0 0 0.716746 0.356092 0 
0.711814 0.362245 0 0.711814 0.362245 0 0.716746 0.356092 0 
0.711814 0.362245 0 0.71605 0.348692 0 0.71605 0.348692 0 
0.711814 0.362245 0 0.71605 0.348692 0 0.716746 0.356092 0 
0.716746 0.356092 0 0.71605 0.348692 0 0.712137 0.384094 0 
0.710117 0.391283 0 0.710117 0.391283 0 0.712137 0.384094 0 
0.710117 0.391283 0 0.710789 0.379174 0 0.710789 0.379174 0 
0.710117 0.391283 0 0.710789 0.379174 0 0.712137 0.384094 0 
0.712137 0.384094 0 0.710789 0.379174 0 0.709768 0.376221 0 
0.707247 0.368703 0 0.707247 0.368703 0 0.709768 0.376221 0 
0.707247 0.368703 0 0.713111 0.369652 0 0.713111 0.369652 0 
0.707247 0.368703 0 0.713111 0.369652 0 0.709768 0.376221 0 
0.709768 0.376221 0 0.713111 0.369652 0 0.711814 0.362245 0 
0.713111 0.369652 0 0.713111 0.369652 0 0.711814 0.362245 0 
0.707247 0.368703 0 0.711814 0.362245 0 0.711814 0.362245 0 
0.707247 0.368703 0 0.716746 0.356092 0 0.713111 0.369652 0 
0.713111 0.369652 0 0.716746 0.356092 0 0.716701 0.362921 0 
0.713111 0.369652 0 0.713111 0.369652 0 0.716701 0.362921 0 
0.716746 0.356092 0 0.716701 0.362921 0 0.716701 0.362921 0 
0.716746 0.356092 0 0.713111 0.369652 0 0.71383 0.376626 0 
0.71383 0.376626 0 0.713111 0.369652 0 0.71383 0.376626 0 
0.710789 0.379174 0 0.710789 0.379174 0 0.71383 0.376626 0 
0.710789 0.379174 0 0.713111 0.369652 0 0.713111 0.369652 0 
0.710789 0.379174 0 0.710789 0.379174 0 0.709768 0.376221 0 
0.709768 0.376221 0 0.710789 0.379174 0 0.716701 0.362921 0 
0.715642 0.372949 0 0.715642 0.372949 0 0.716701 0.362921 0 
0.715642 0.372949 0 0.713111 0.369652 0 0.713111 0.369652 0 
0.715642 0.372949 0 0.715642 0.372949 0 0.71383 0.376626 0 
0.71383 0.376626 0 0.715642 0.372949 0 0.71383 0.376626 0 
0.712137 0.384094 0 0.712137 0.384094 0 0.71383 0.376626 0 
0.712137 0.384094 0 0.714175 0.391452 0 0.714175 0.391452 0 
0.712137 0.384094 0 0.714175 0.391452 0 0.710162 0.394435 0 
0.710162 0.394435 0 0.714175 0.391452 0 0.710162 0.394435 0 
0.712137 0.384094 0 0.712137 0.384094 0 0.710162 0.394435 0 
0.710162 0.394435 0 0.710117 0.391283 0 0.710117 0.391283 0 
0.710162 0.394435 0 0.715537 0.386307 0 0.71511 0.390491 0 
0.71511 0.390491 0 0.715537 0.386307 0 0.71511 0.390491 0 
0.712137 0.384094 0 0.712137 0.384094 0 0.71511 0.390491 0 
0.712137 0.384094 0 0.715537 0.386307 0 0.715537 0.386307 0 
0.712137 0.384094 0 0.71383 0.376626 0 0.715537 0.386307 0 
0.715537 0.386307 0 0.71383 0.376626 0 0.71511 0.390491 0 
0.714175 0.391452 0 0.714175 0.391452 0 0.71511 0.390491 0 
0.715642 0.372949 0 0.715537 0.386307 0 0.715537 0.386307 0 
0.715642 0.372949 0 0.715952 0.381592 0 0.715537 0.386307 0 
0.715537 0.386307 0 0.715952 0.381592 0 0.715642 0.372949 0 
0.715952 0.381592 0 0.715952 0.381592 0 0.715642 0.372949 0 
0.715537 0.386307 0 0.716478 0.390256 0 0.716478 0.390256 0 
0.715537 0.386307 0 0.716478 0.390256 0 0.71511 0.390491 0 
0.71511 0.390491 0 0.716478 0.390256 0 0.715952 0.381592 0 
0.716478 0.390256 0 0.716478 0.390256 0 0.715952 0.381592 0 
0.708706 0.39912 0 0.710162 0.394435 0 0.710162 0.394435 0 
0.708706 0.39912 0 0.710162 0.394435 0 0.711959 0.404373 0 
0.711959 0.404373 0 0.710162 0.394435 0 0.711959 0.404373 0 
0.708706 0.39912 0 0.708706 0.39912 0 0.711959 0.404373 0 
0.710162 0.394435 0 0.714231 0.401104 0 0.714231 0.401104 0 
0.710162 0.394435 0 0.714231 0.401104 0 0.711959 0.404373 0 
0.711959 0.404373 0 0.714231 0.401104 0 0.714175 0.391452 0 
0.714231 0.401104 0 0.714231 0.401104 0 0.714175 0.391452 0 
0.714175 0.391452 0 0.718304 0.400597 0 0.718304 0.400597 0 
0.714175 0.391452 0 0.718304 0.400597 0 0.714231 0.401104 0 
0.714231 0.401104 0 0.718304 0.400597 0 0.715818 0.409931 0 
0.711959 0.404373 0 0.711959 0.404373 0 0.715818 0.409931 0 
0.714231 0.401104 0 0.715818 0.409931 0 0.715818 0.409931 0 
0.714231 0.401104 0 0.714231 0.401104 0 0.719501 0.409339 0 
0.719501 0.409339 0 0.714231 0.401104 0 0.719501 0.409339 0 
0.715818 0.409931 0 0.715818 0.409931 0 0.719501 0.409339 0 
0.718304 0.400597 0 0.719501 0.409339 0 0.719501 0.409339 0 
0.718304 0.400597 0 0.71511 0.390491 0 0.718304 0.400597 0 
0.718304 0.400597 0 0.71511 0.390491 0 0.719239 0.399119 0 
0.718304 0.400597 0 0.718304 0.400597 0 0.719239 0.399119 0 
0.71511 0.390491 0 0.719239 0.399119 0 0.719239 0.399119 0 
0.71511 0.390491 0 0.717713 0.394769 0 0.719239 0.399119 0 
0.719239 0.399119 0 0.717713 0.394769 0 0.71511 0.390491 0 
0.717713 0.394769 0 0.717713 0.394769 0 0.71511 0.390491 0 
0.716478 0.390256 0 0.717713 0.394769 0 0.717713 0.394769 0 
0.716478 0.390256 0 0.718304 0.400597 0 0.721626 0.40734 0 
0.721626 0.40734 0 0.718304 0.400597 0 0.721626 0.40734 0 
0.719501 0.409339 0 0.719501 0.409339 0 0.721626 0.40734 0 
0.719239 0.399119 0 0.721626 0.40734 0 0.721626 0.40734 0 
0.719239 0.399119 0 0.719239 0.399119 0 0.721961 0.405954 0 
0.721961 0.405954 0 0.719239 0.399119 0 0.721961 0.405954 0 
0.721626 0.40734 0 0.721626 0.40734 0 0.721961 0.405954 0 
0.720898 0.417486 0 0.723798 0.422436 0 0.723798 0.422436 0 
0.720898 0.417486 0 0.723798 0.422436 0 0.721531 0.426437 0 
0.721531 0.426437 0 0.723798 0.422436 0 0.721531 0.426437 0 
0.720898 0.417486 0 0.720898 0.417486 0 0.721531 0.426437 0 
0.723798 0.422436 0 0.730225 0.42729 0 0.730225 0.42729 0 
0.723798 0.422436 0 0.730225 0.42729 0 0.721531 0.426437 0 
0.721531 0.426437 0 0.730225 0.42729 0 0.719501 0.409339 0 
0.720898 0.417486 0 0.720898 0.417486 0 0.719501 0.409339 0 
0.720898 0.417486 0 0.715818 0.409931 0 0.715818 0.409931 0 
0.720898 0.417486 0 0.719501 0.409339 0 0.723394 0.415476 0 
0.723394 0.415476 0 0.719501 0.409339 0 0.723394 0.415476 0 
0.720898 0.417486 0 0.720898 0.417486 0 0.723394 0.415476 0 
0.721626 0.40734 0 0.723394 0.415476 0 0.723394 0.415476 0 
0.721626 0.40734 0 0.721626 0.40734 0 0.724939 0.412523 0 
0.724939 0.412523 0 0.721626 0.40734 0 0.724939 0.412523 0 
0.723394 0.415476 0 0.723394 0.415476 0 0.724939 0.412523 0 
0.723394 0.415476 0 0.723798 0.422436 0 0.723798 0.422436 0 
0.723394 0.415476 0 0.723394 0.415476 0 0.72911 0.4202 0 
0.72911 0.4202 0 0.723394 0.415476 0 0.72911 0.4202 0 
0.723798 0.422436 0 0.723798 0.422436 0 0.72911 0.4202 0 
0.724939 0.412523 0 0.72911 0.4202 0 0.72911 0.4202 0 
0.724939 0.412523 0 0.721961 0.405954 0 0.724939 0.412523 0 
0.724939 0.412523 0 0.721961 0.405954 0 0.72911 0.4202 0 
0.730225 0.42729 0 0.730225 0.42729 0 0.72911 0.4202 0 
0.72911 0.4202 0 0.73515 0.42465 0 0.73515 0.42465 0 
0.72911 0.4202 0 0.73515 0.42465 0 0.730225 0.42729 0 
0.730225 0.42729 0 0.73515 0.42465 0 0.732169 0.435346 0 
0.730225 0.42729 0 0.730225 0.42729 0 0.732169 0.435346 0 
0.730225 0.42729 0 0.737744 0.429472 0 0.737744 0.429472 0 
0.730225 0.42729 0 0.737744 0.429472 0 0.732169 0.435346 0 
0.732169 0.435346 0 0.737744 0.429472 0 0.730225 0.42729 0 
0.73969 0.426446 0 0.73969 0.426446 0 0.730225 0.42729 0 
0.73969 0.426446 0 0.737744 0.429472 0 0.737744 0.429472 0 
0.73969 0.426446 0 0.73515 0.42465 0 0.73969 0.426446 0 
0.73969 0.426446 0 0.73515 0.42465 0 0.746767 0.449511 0 
0.739836 0.446755 0 0.739836 0.446755 0 0.746767 0.449511 0 
0.739836 0.446755 0 0.75152 0.441863 0 0.75152 0.441863 0 
0.739836 0.446755 0 0.75152 0.441863 0 0.746767 0.449511 0 
0.746767 0.449511 0 0.75152 0.441863 0 0.757689 0.444826 0 
0.746767 0.449511 0 0.746767 0.449511 0 0.757689 0.444826 0 
0.75152 0.441863 0 0.757689 0.444826 0 0.757689 0.444826 0 
0.75152 0.441863 0 0.732169 0.435346 0 0.742618 0.432891 0 
0.742618 0.432891 0 0.732169 0.435346 0 0.742618 0.432891 0 
0.739836 0.446755 0 0.739836 0.446755 0 0.742618 0.432891 0 
0.739836 0.446755 0 0.732169 0.435346 0 0.732169 0.435346 0 
0.739836 0.446755 0 0.742618 0.432891 0 0.748063 0.435021 0 
0.748063 0.435021 0 0.742618 0.432891 0 0.748063 0.435021 0 
0.739836 0.446755 0 0.739836 0.446755 0 0.748063 0.435021 0 
0.748063 0.435021 0 0.75152 0.441863 0 0.75152 0.441863 0 
0.748063 0.435021 0 0.759716 0.440873 0 0.757689 0.444826 0 
0.757689 0.444826 0 0.759716 0.440873 0 0.75152 0.441863 0 
0.759716 0.440873 0 0.759716 0.440873 0 0.75152 0.441863 0 
0.737744 0.429472 0 0.742618 0.432891 0 0.742618 0.432891 0 
0.737744 0.429472 0 0.73969 0.426446 0 0.742618 0.432891 0 
0.742618 0.432891 0 0.73969 0.426446 0 0.751813 0.430229 0 
0.748063 0.435021 0 0.748063 0.435021 0 0.751813 0.430229 0 
0.742618 0.432891 0 0.751813 0.430229 0 0.751813 0.430229 0 
0.742618 0.432891 0 0.73969 0.426446 0 0.746058 0.428654 0 
0.746058 0.428654 0 0.73969 0.426446 0 0.746058 0.428654 0 
0.742618 0.432891 0 0.742618 0.432891 0 0.746058 0.428654 0 
0.746058 0.428654 0 0.751813 0.430229 0 0.751813 0.430229 0 
0.746058 0.428654 0 0.748063 0.435021 0 0.755306 0.435742 0 
0.755306 0.435742 0 0.748063 0.435021 0 0.755306 0.435742 0 
0.75152 0.441863 0 0.75152 0.441863 0 0.755306 0.435742 0 
0.751813 0.430229 0 0.755306 0.435742 0 0.755306 0.435742 0 
0.751813 0.430229 0 0.758452 0.431743 0 0.755306 0.435742 0 
0.755306 0.435742 0 0.758452 0.431743 0 0.751813 0.430229 0 
0.758452 0.431743 0 0.758452 0.431743 0 0.751813 0.430229 0 
0.755306 0.435742 0 0.759716 0.440873 0 0.759716 0.440873 0 
0.755306 0.435742 0 0.762759 0.436826 0 0.759716 0.440873 0 
0.759716 0.440873 0 0.762759 0.436826 0 0.755306 0.435742 0 
0.762759 0.436826 0 0.762759 0.436826 0 0.755306 0.435742 0 
0.755306 0.435742 0 0.763917 0.432673 0 0.763917 0.432673 0 
0.755306 0.435742 0 0.763917 0.432673 0 0.762759 0.436826 0 
0.762759 0.436826 0 0.763917 0.432673 0 0.758452 0.431743 0 
0.763917 0.432673 0 0.763917 0.432673 0 0.758452 0.431743 0 
0.767922 0.442017 0 0.764485 0.447719 0 0.764485 0.447719 0 
0.767922 0.442017 0 0.764485 0.447719 0 0.757689 0.444826 0 
[...]
POINT_DATA 65956
SCALARS scalars float
LOOKUP_TABLE default
1.59472 1.73233 1.73233 1.59472 1.73233 1.45985 1.45985 1.73233 1.45985 
1.59472 1.59472 1.45985 1.59472 1.59472 1.59472 1.59472 1.45985 1.59472 
1.59472 1.45985 1.53427 1.53427 1.53427 1.53427 1.53427 1.53427 1.53427 
1.53427 1.53427 1.53427 1.53427 1.53427 2.0368 1.94356 1.94356 2.0368 
1.94356 1.94356 1.94356 1.94356 1.94356 2.0368 2.0368 1.94356 1.77816 
1.77816 1.77816 1.77816 1.77816 1.77816 1.77816 1.77816 1.77816 1.77816 
1.77816 1.77816 1.53427 1.77816 1.77816 1.53427 1.77816 1.53427 1.53427 
1.77816 1.53427 1.77816 1.77816 1.53427 1.76461 1.77816 1.77816 1.76461 
1.53427 1.76461 1.76461 1.53427 1.77816 2.0368 2.0368 1.77816 2.0368 
1.94356 1.94356 2.0368 1.94356 1.77816 1.77816 1.94356 1.94356 1.77816 
1.77816 1.94356 1.76461 2.1096 2.1096 1.76461 2.1096 1.77816 1.77816 
2.1096 2.1096 2.0368 2.0368 2.1096 2.0368 2.0368 2.0368 2.0368 
2.0368 2.10387 2.10387 2.0368 2.10387 2.10387 2.10387 2.10387 2.10387 
2.0368 2.0368 2.10387 2.10387 1.94356 1.94356 2.10387 2.18282 2.18282 
2.18282 2.18282 2.18282 2.0368 2.0368 2.18282 2.0368 2.18282 2.18282 
2.0368 2.0368 2.18282 2.18282 2.0368 2.18282 2.10387 2.10387 2.18282 
2.1096 2.18282 2.18282 2.1096 2.1096 2.18282 2.18282 2.1096 2.1096 
2.1096 2.1096 2.1096 2.18282 2.18282 2.18282 2.18282 2.18282 2.18282 
2.18282 2.18282 2.1096 2.18282 2.18282 2.1096 1.95804 2.10387 2.10387 
1.95804 2.10387 2.20845 2.20845 2.10387 2.20845 1.95804 1.95804 2.20845 
2.10387 2.10387 2.10387 2.10387 2.10387 2.20845 2.20845 2.10387 2.10387 
2.10387 2.10387 2.10387 2.10387 2.14156 2.14156 2.10387 2.14156 2.10387 
2.10387 2.14156 2.19589 2.20845 2.20845 2.19589 2.10387 2.19589 2.19589 
2.10387 2.10387 2.14156 2.14156 2.10387 2.14156 2.19589 2.19589 2.14156 
2.14156 2.14156 2.14156 2.14156 2.18282 2.14156 2.14156 2.18282 2.1123 
2.14156 2.14156 2.1123 2.18282 2.1123 2.1123 2.18282 2.18282 2.1123 
2.1123 2.18282 2.18282 2.18282 2.18282 2.18282 2.18282 2.18282 2.18282 
2.18282 2.14156 2.14156 2.14156 2.14156 2.14156 2.14156 2.14156 2.14156 
2.1123 2.14156 2.14156 2.1123 2.1123 2.1123 2.1123 2.1123 2.1123 
2.14156 2.14156 2.1123 2.02473 2.02473 2.02473 2.02473 2.02473 1.9689 
1.9689 2.02473 1.9689 2.02473 2.02473 1.9689 2.02473 1.75633 1.75633 
2.02473 1.75633 1.9689 1.9689 1.75633 2.14156 2.02473 2.02473 2.14156 
2.02473 2.19589 2.19589 2.02473 2.14156 2.02473 2.02473 2.14156 2.02473 
2.02473 2.02473 2.02473 2.14156 2.02473 2.02473 2.14156 2.14156 1.96751 
1.96751 2.14156 1.96751 2.02473 2.02473 1.96751 2.02473 2.02473 2.02473 
2.02473 2.02473 1.80119 1.80119 2.02473 1.80119 2.02473 2.02473 1.80119 
1.96751 1.80119 1.80119 1.96751 2.1123 1.96751 1.96751 2.1123 1.80119 
1.75633 1.75633 1.80119 1.80119 1.80119 1.80119 1.80119 1.80119 1.75633 
1.75633 1.80119 1.62441 1.75633 1.75633 1.62441 1.75633 1.63615 1.63615 
1.75633 1.63615 1.62441 1.62441 1.63615 1.75633 1.59288 1.59288 1.75633 
1.59288 1.63615 1.63615 1.59288 1.80119 1.59288 1.59288 1.80119 1.82351 
1.71631 1.71631 1.82351 1.71631 1.82351 1.82351 1.71631 1.82351 1.82351 
1.82351 1.82351 1.82351 1.82351 1.82351 1.82351 1.82351 1.82351 1.82351 
1.82351 1.62441 1.63615 1.63615 1.62441 1.63615 1.71631 1.71631 1.63615 
1.71631 1.62441 1.62441 1.71631 1.63615 1.56956 1.56956 1.63615 1.56956 
1.71631 1.71631 1.56956 1.56956 1.82351 1.82351 1.56956 1.82351 1.82351 
1.82351 1.82351 1.82351 1.82351 1.82351 1.82351 1.63615 1.63615 1.63615 
1.63615 1.59288 1.63615 1.63615 1.59288 1.56956 1.56956 1.56956 1.56956 
1.63615 1.56956 1.56956 1.63615 1.59288 1.59288 1.59288 1.59288 1.59288 
1.63615 1.63615 1.59288 1.59288 1.56956 1.56956 1.59288 1.56956 1.68943 
1.68943 1.56956 1.68943 1.82351 1.82351 1.68943 1.56956 1.68943 1.68943 
1.56956 1.56956 1.68943 1.68943 1.56956 1.56956 1.56956 1.56956 1.56956 
1.68943 1.82351 1.82351 1.68943 1.68943 1.82351 1.82351 1.68943 1.68943 
1.68943 1.68943 1.68943 1.68943 1.52401 1.52401 1.68943 1.52401 1.68943 
1.68943 1.52401 1.56956 1.52401 1.52401 1.56956 1.80428 1.80428 1.80428 
1.80428 1.80428 1.82351 1.82351 1.80428 1.82351 1.80428 1.80428 1.82351 
1.58047 1.80428 1.80428 1.58047 1.80428 1.80428 1.80428 1.80428 1.80428 
1.58047 1.58047 1.80428 1.80428 1.80428 1.80428 1.80428 1.58047 1.58047 
1.58047 1.58047 1.58047 1.58047 1.58047 1.58047 1.58047 1.58047 1.58047 
1.58047 1.80428 1.58047 1.58047 1.80428 1.58047 1.29258 1.29258 1.58047 
1.29258 1.58047 1.58047 1.29258 1.80428 1.68073 1.68073 1.80428 1.68073 
1.80428 1.80428 1.68073 1.80428 1.58047 1.58047 1.80428 1.58047 1.58047 
1.58047 1.58047 1.68073 1.58047 1.58047 1.68073 1.68073 1.68073 1.68073 
1.68073 1.68073 1.58047 1.58047 1.68073 1.32102 1.29258 1.29258 1.32102 
1.29258 1.29258 1.29258 1.29258 1.29258 1.32102 1.32102 1.29258 1.58047 
1.32102 1.32102 1.58047 1.32102 1.57189 1.57189 1.32102 1.57189 1.29258 
1.29258 1.57189 1.58047 1.32102 1.32102 1.58047 1.68073 1.32102 1.32102 
1.68073 1.68073 1.57189 1.57189 1.68073 1.68073 1.57189 1.57189 1.68073 
1.68073 1.68073 1.68073 1.68073 1.34229 1.57189 1.57189 1.34229 1.57189 
1.68073 1.68073 1.57189 1.68073 1.34229 1.34229 1.68073 1.57189 1.68073 
1.68073 1.57189 1.57189 1.57189 1.57189 1.57189 1.57189 1.57189 1.57189 
1.57189 1.34229 1.57189 1.57189 1.34229 1.57189 1.57189 1.57189 1.57189 
1.82351 1.80428 1.80428 1.82351 1.82351 1.68943 1.68943 1.82351 1.68943 
1.80428 1.80428 1.68943 1.68943 1.68943 1.68943 1.68943 1.68943 1.68943 
1.68943 1.68943 1.68943 1.68943 1.68943 1.68943 1.52401 1.68943 1.68943 
1.52401 1.68943 1.68073 1.68073 1.68943 1.68943 1.65639 1.65639 1.68943 
1.65639 1.68073 1.68073 1.65639 1.68943 1.65639 1.65639 1.68943 1.52401 
1.68943 1.68943 1.52401 1.52401 1.52401 1.52401 1.52401 1.68943 1.51622 
1.51622 1.68943 1.51622 1.65639 1.65639 1.51622 1.52401 1.51622 1.51622 
1.52401 1.65639 1.68073 1.68073 1.65639 1.56011 1.68073 1.68073 1.56011 
1.65639 1.56011 1.56011 1.65639 1.51622 1.56011 1.56011 1.51622 1.68073 
1.34229 1.34229 1.68073 1.56011 1.34229 1.34229 1.56011 1.51622 1.51622 
1.51622 1.51622 1.51622 1.56011 1.56011 1.51622 1.56011 1.51622 1.51622 
1.56011 1.51622 1.34229 1.34229 1.51622 1.51622 1.57189 1.57189 1.51622 
1.41784 1.41784 1.41784 1.41784 1.41784 1.32764 1.32764 1.41784 1.32764 
1.41784 1.41784 1.32764 1.41784 1.41784 1.41784 1.41784 1.32764 1.41784 
1.41784 1.32764 1.32764 1.32764 1.32764 1.32764 1.41784 1.32764 1.32764 
1.41784 1.41784 1.56713 1.56713 1.41784 1.56713 1.41784 1.41784 1.56713 
1.53427 1.34585 1.34585 1.53427 1.34585 1.50177 1.50177 1.34585 1.50177 
1.53427 1.53427 1.50177 1.32764 1.50177 1.50177 1.32764 1.34585 1.32764 
1.32764 1.34585 1.50177 1.50177 1.50177 1.50177 1.32764 1.50177 1.50177 
1.32764 1.50177 1.53427 1.53427 1.50177 1.50177 1.53427 1.53427 1.50177 
1.50177 1.50177 1.50177 1.50177 1.50177 1.50177 1.50177 1.50177 1.83385 
1.50177 1.50177 1.83385 1.50177 1.83385 1.83385 1.50177 1.41784 1.50177 
1.50177 1.41784 1.50177 1.41784 1.41784 1.50177 1.41784 1.41784 1.41784 
1.41784 1.41784 1.83385 1.83385 1.41784 1.56713 1.41784 1.41784 1.56713 
1.56713 1.41784 1.41784 1.56713 1.56713 1.56713 1.56713 1.56713 1.41784 
1.56713 1.56713 1.41784 1.56713 1.83385 1.83385 1.56713 1.56713 1.56713 
1.56713 1.56713 1.41784 1.28679 1.28679 1.41784 1.28679 1.31047 1.31047 
1.28679 1.31047 1.41784 1.41784 1.31047 1.56713 1.56713 1.56713 1.56713 
1.41784 1.56713 1.56713 1.41784 1.31047 1.56713 1.56713 1.31047 1.41784 
1.31047 1.31047 1.41784 1.31047 1.31047 1.31047 1.31047 1.41784 1.31047 
1.31047 1.41784 1.31047 1.86969 1.86969 1.31047 1.86969 1.56713 1.56713 
1.86969 1.60667 1.31047 1.31047 1.60667 1.31047 1.56069 1.56069 1.31047 
1.56069 1.60667 1.60667 1.56069 1.28679 1.56069 1.56069 1.28679 1.60667 
1.31047 1.31047 1.60667 1.60667 1.86969 1.86969 1.60667 1.86969 1.8227 
1.8227 1.86969 1.8227 1.60667 1.60667 1.8227 1.31047 1.8227 1.8227 
1.31047 1.60667 1.8227 1.8227 1.60667 1.86969 1.56713 1.56713 1.86969 
1.56713 1.86969 1.86969 1.56713 1.86969 1.86969 1.86969 1.86969 1.60667 
1.86969 1.86969 1.60667 1.56713 1.56713 1.56713 1.56713 1.8227 1.8227 
1.8227 1.8227 1.8227 1.60667 1.60667 1.8227 1.58012 1.50192 1.50192 
1.58012 1.50192 1.50192 1.50192 1.50192 1.50192 1.58012 1.58012 1.50192 
1.44295 1.58012 1.58012 1.44295 1.50192 1.44295 1.44295 1.50192 1.44295 
1.44295 1.44295 1.44295 1.50192 1.44295 1.44295 1.50192 1.5635 1.60667 
1.60667 1.5635 1.56069 1.5635 1.5635 1.56069 1.5635 1.5635 1.5635 
1.5635 1.56069 1.5635 1.5635 1.56069 1.8227 1.60667 1.60667 1.8227 
1.5635 1.8227 1.8227 1.5635 1.8227 1.8227 1.8227 1.8227 1.50192 
1.5635 1.5635 1.50192 1.5635 1.50192 1.50192 1.5635 1.58012 1.8227 
1.8227 1.58012 1.5635 1.58012 1.58012 1.5635 1.50192 1.58012 1.58012 
1.50192 1.58012 1.58012 1.58012 1.58012 1.58012 1.58012 1.58012 1.58012 
1.58012 1.58012 1.58012 1.58012 1.65872 1.58012 1.58012 1.65872 1.58012 
1.65872 1.65872 1.58012 1.44295 1.65872 1.65872 1.44295 1.8227 1.8227 
1.8227 1.8227 1.8227 1.8227 1.8227 1.8227 1.89167 1.8227 1.8227 
1.89167 1.8227 1.8227 1.8227 1.8227 1.8227 1.89167 1.89167 1.8227 
2.00021 1.89167 1.89167 2.00021 1.8227 2.00021 2.00021 1.8227 1.58012 
2.00021 2.00021 1.58012 2.00021 2.00021 2.00021 2.00021 1.58012 2.00021 
2.00021 1.58012 1.58012 2.00021 2.00021 1.58012 1.65872 2.00021 2.00021 
1.65872 2.00021 1.65872 1.65872 2.00021 1.65872 1.65872 1.65872 1.65872 
1.50177 1.76461 1.76461 1.50177 1.78278 1.76461 1.76461 1.78278 1.50177 
1.78278 1.78278 1.50177 1.83385 1.78278 1.78278 1.83385 1.83385 1.78278 
1.78278 1.83385 1.83385 1.83385 1.83385 1.83385 1.76461 2.1096 2.1096 
1.76461 2.1096 2.1096 2.1096 2.1096 1.78278 2.1096 2.1096 1.78278 
1.83385 2.1096 2.1096 1.83385 1.64064 1.44295 1.44295 1.64064 1.44295 
1.64064 1.64064 1.44295 1.64064 1.44295 1.44295 1.64064 1.64064 1.64064 
1.64064 1.64064 1.64064 1.65872 1.65872 1.64064 1.44295 1.64064 1.64064 
1.44295 1.64064 1.64064 1.64064 1.64064 1.64064 1.77834 1.77834 1.64064 
1.77834 1.65872 1.65872 1.77834 1.64064 1.48313 1.48313 1.64064 1.48313 
1.64064 1.64064 1.48313 1.77834 1.77834 1.77834 1.77834 1.64064 1.77834 
1.77834 1.64064 1.70957 1.64064 1.64064 1.70957 1.48313 1.70957 1.70957 
1.48313 1.48313 1.48313 1.48313 1.48313 1.48313 1.70957 1.70957 1.48313 
1.70957 1.64064 1.64064 1.70957 1.80895 1.77834 1.77834 1.80895 1.77834 
1.70957 1.70957 1.77834 1.70957 1.80895 1.80895 1.70957 1.70957 1.70957 
1.70957 1.70957 1.77834 1.70957 1.70957 1.77834 1.70957 1.70957 1.70957 
1.70957 1.48313 1.70957 1.70957 1.48313 1.48313 1.24438 1.24438 1.48313 
1.24438 1.70957 1.70957 1.24438 1.76839 1.70957 1.70957 1.76839 1.70957 
1.70957 1.70957 1.70957 1.70957 1.76839 1.76839 1.70957 1.76839 1.80895 
1.80895 1.76839 1.76839 1.80895 1.80895 1.76839 1.80895 1.80895 1.80895 
1.80895 1.63182 1.65872 1.65872 1.63182 1.65872 1.77834 1.77834 1.65872 
1.77834 1.63182 1.63182 1.77834 1.77834 1.63182 1.63182 1.77834 1.77834 
1.77834 1.77834 1.77834 1.77834 1.77834 1.77834 1.77834 1.80895 1.77834 
1.77834 1.80895 1.80895 1.68719 1.68719 1.80895 1.68719 1.77834 1.77834 
1.68719 1.71235 1.68719 1.68719 1.71235 1.68719 1.80895 1.80895 1.68719 
1.80895 1.71235 1.71235 1.80895 1.50417 1.24438 1.24438 1.50417 1.24438 
1.50417 1.50417 1.24438 1.50417 1.50417 1.50417 1.50417 1.50417 1.50417 
1.50417 1.50417 1.50417 1.50417 1.50417 1.50417 1.50417 1.50417 1.50417 
1.50417 1.50417 1.50417 1.50417 1.50417 1.63412 1.50417 1.50417 1.63412 
1.50417 1.63412 1.63412 1.50417 1.50417 1.70957 1.70957 1.50417 1.76839 
1.76839 1.76839 1.76839 1.70957 1.76839 1.76839 1.70957 1.50417 1.76839 
1.76839 1.50417 1.63412 1.76839 1.76839 1.63412 1.76839 1.76839 1.76839 
1.76839 1.76839 1.76839 1.76839 1.76839 1.80187 1.80895 1.80895 1.80187 
1.80895 1.76839 1.76839 1.80895 1.76839 1.80187 1.80187 1.76839 1.79628 
1.76839 1.76839 1.79628 1.76839 1.63412 1.63412 1.76839 1.63412 1.79628 
1.79628 1.63412 1.76839 1.63412 1.63412 1.76839 1.63412 1.63412 1.63412 
1.63412 1.79628 1.80187 1.80187 1.79628 1.79628 1.80187 1.80187 1.79628 
1.80187 1.80187 1.80187 1.80187 1.50417 1.63412 1.63412 1.50417 1.63412 
1.50417 1.50417 1.63412 1.63412 1.63412 1.63412 1.63412 1.63412 1.63412 
1.63412 1.63412 1.63412 1.63412 1.63412 1.63412 1.50417 1.63412 1.63412 
1.50417 1.63412 1.63412 1.63412 1.63412 1.63412 1.66756 1.66756 1.63412 
1.66756 1.63412 1.63412 1.66756 1.3958 1.66756 1.66756 1.3958 1.63412 
1.3958 1.3958 1.63412 1.63412 1.3958 1.3958 1.63412 1.66756 1.63412 
1.63412 1.66756 1.63412 1.66756 1.66756 1.63412 1.66756 1.66756 1.66756 
1.66756 1.63412 1.63412 1.63412 1.63412 1.63412 1.66756 1.66756 1.63412 
1.66756 1.66756 1.66756 1.66756 1.66756 1.63412 1.63412 1.66756 1.66756 
1.66756 1.66756 1.66756 1.66756 1.66756 1.66756 1.66756 1.66756 1.66756 
1.66756 1.66756 1.66756 1.66756 1.66756 1.66756 1.66756 1.66756 1.66756 
1.66756 1.66756 1.66756 1.66756 1.66756 1.66756 1.66756 1.66756 1.66756 
1.66756 1.66756 1.66756 1.66756 1.66756 1.66756 1.66756 1.66756 1.66756 
1.79628 1.79628 1.66756 1.66756 1.79628 1.79628 1.66756 1.79628 1.79628 
1.79628 1.79628 1.80187 1.80187 1.80187 1.80187 1.79628 1.80187 1.80187 
1.79628 1.79628 1.80187 1.80187 1.79628 1.66756 1.79628 1.79628 1.66756 
1.80187 1.71235 1.71235 1.80187 1.80187 1.60463 1.60463 1.80187 1.60463 
1.71235 1.71235 1.60463 1.80187 1.60463 1.60463 1.80187 1.66756 1.66756 
1.66756 1.66756 1.66756 1.66756 1.66756 1.66756 1.79628 1.80244 1.80244 
1.79628 1.80244 1.80187 1.80187 1.80244 1.66756 1.73344 1.73344 1.66756 
1.73344 1.66756 1.66756 1.73344 1.73344 1.79628 1.79628 1.73344 1.80244 
1.80244 1.80244 1.80244 1.80244 1.73344 1.73344 1.80244 1.73344 1.80244 
1.80244 1.73344 1.66756 1.73344 1.73344 1.66756 1.73344 1.73344 1.73344 
1.73344 1.73344 1.80244 1.80244 1.73344 1.51622 1.50895 1.50895 1.51622 
1.50895 1.51622 1.51622 1.50895 1.59904 1.66756 1.66756 1.59904 1.66756 
1.59904 1.59904 1.66756 1.59904 1.59904 1.59904 1.59904 1.59904 1.59904 
1.59904 1.59904 1.59904 1.59904 1.59904 1.59904 1.78431 1.59904 1.59904 
1.78431 1.59904 1.78431 1.78431 1.59904 1.59904 1.59904 1.59904 1.59904 
1.59904 1.59904 1.59904 1.59904 1.59904 1.59904 1.59904 1.59904 1.59904 
1.59904 1.59904 1.59904 1.59904 1.59904 1.59904 1.59904 1.66756 1.59904 
1.59904 1.66756 1.78431 1.59904 1.59904 1.78431 1.59904 1.78431 1.78431 
1.59904 1.78431 1.78431 1.78431 1.78431 1.75066 1.78431 1.78431 1.75066 
1.59904 1.75066 1.75066 1.59904 1.57189 1.59347 1.59347 1.57189 1.59347 
1.59347 1.59347 1.59347 1.59347 1.57189 1.57189 1.59347 1.29258 1.57189 
1.57189 1.29258 1.59347 1.29258 1.29258 1.59347 1.57189 1.81657 1.81657 
1.57189 1.81657 1.59347 1.59347 1.81657 1.59347 1.57189 1.57189 1.59347 
1.57189 1.57189 1.57189 1.57189 1.81657 1.78431 1.78431 1.81657 1.78431 
1.81657 1.81657 1.78431 1.81657 1.81657 1.81657 1.81657 1.59347 1.81657 
1.81657 1.59347 1.81657 1.59347 1.59347 1.81657 1.78431 1.78431 1.78431 
1.78431 1.78431 1.59904 1.59904 1.78431 1.78431 1.59904 1.59904 1.78431 
1.78431 1.78431 1.78431 1.78431 1.78431 1.81657 1.81657 1.78431 1.81657 
1.81657 1.81657 1.81657 1.81657 1.78431 1.78431 1.81657 1.57189 1.81657 
1.81657 1.57189 1.59904 1.78431 1.78431 1.59904 1.78431 1.81657 1.81657 
1.78431 1.81657 1.59904 1.59904 1.81657 1.78431 1.78431 1.78431 1.78431 
1.29258 1.29258 1.29258 1.29258 1.29258 1.57189 1.57189 1.29258 1.29258 
1.57189 1.57189 1.29258 1.29258 1.57189 1.57189 1.29258 1.57189 1.57189 
1.57189 1.57189 1.57189 1.57189 1.57189 1.57189 1.57189 1.81657 1.81657 
1.57189 1.78431 1.81657 1.81657 1.78431 1.57189 1.78431 1.78431 1.57189 
1.78431 1.59904 1.59904 1.78431 1.57189 1.78431 1.78431 1.57189 1.57189 
1.78431 1.78431 1.57189 1.81657 1.78431 1.78431 1.81657 1.57189 1.81657 
1.81657 1.57189 1.51622 1.81657 1.81657 1.51622 1.66756 1.66756 1.66756 
1.66756 1.66756 1.39023 1.39023 1.66756 1.39023 1.66756 1.66756 1.39023 
1.3958 1.39023 1.39023 1.3958 1.59904 1.66756 1.66756 1.59904 1.66756 
1.59904 1.59904 1.66756 1.59904 1.66756 1.66756 1.59904 1.66756 1.59904 
1.59904 1.66756 1.59904 1.66756 1.66756 1.59904 1.59904 1.59904 1.59904 
1.59904 1.78431 1.59904 1.59904 1.78431 1.59904 1.66756 1.66756 1.59904 
1.59904 1.59904 1.59904 1.59904 1.59904 1.66756 1.66756 1.59904 1.59904 
1.59904 1.59904 1.59904 1.59904 1.59904 1.59904 1.59904 1.39023 1.73344 
1.73344 1.39023 1.73344 1.59904 1.59904 1.73344 1.59904 1.39023 1.39023 
1.59904 1.39023 1.80244 1.80244 1.39023 1.78431 1.59904 1.59904 1.78431 
1.78431 1.78431 1.78431 1.78431 1.59904 1.59904 1.59904 1.59904 1.59904 
1.78431 1.78431 1.59904 1.78431 1.59904 1.59904 1.78431 1.78431 1.78431 
1.78431 1.78431 1.78431 1.78431 1.78431 1.78431 1.81657 1.78431 1.78431 
1.81657 1.78431 1.78431 1.78431 1.78431 1.78431 1.78431 1.78431 1.78431 
1.78431 1.59904 1.59904 1.78431 1.43913 1.59904 1.59904 1.43913 1.59904 
1.43913 1.43913 1.59904 1.43913 1.39023 1.39023 1.43913 1.50895 1.81657 
1.81657 1.50895 1.50895 1.78431 1.78431 1.50895 1.73457 1.73457 1.73457 
1.73457 1.73457 1.73457 1.73457 1.73457 1.73457 1.73457 1.73457 1.73457 
1.73457 1.76784 1.76784 1.73457 1.76784 1.73457 1.73457 1.76784 1.76784 
1.76784 1.76784 1.76784 1.76784 1.73457 1.73457 1.76784 1.73457 1.76784 
1.76784 1.73457 1.73457 1.73457 1.73457 1.73457 1.76784 1.79619 1.79619 
1.76784 1.79619 1.76784 1.76784 1.79619 1.76784 1.76784 1.76784 1.76784 
1.76784 1.79619 1.79619 1.76784 1.76784 1.5236 1.5236 1.76784 1.5236 
1.79619 1.79619 1.5236 1.5236 1.5236 1.5236 1.5236 1.5236 1.69032 
1.69032 1.5236 1.69032 1.5236 1.5236 1.69032 1.69032 1.69032 1.69032 
1.69032 1.5236 1.69032 1.69032 1.5236 1.76784 1.69032 1.69032 1.76784 
1.69032 1.5236 1.5236 1.69032 1.5236 1.5236 1.5236 1.5236 1.41345 
1.41345 1.41345 1.41345 1.41345 1.5236 1.5236 1.41345 1.5236 1.41345 
1.41345 1.5236 1.41345 1.5236 1.5236 1.41345 1.41345 1.41345 1.41345 
1.41345 1.5236 1.41345 1.41345 1.5236 1.5236 1.41345 1.41345 1.5236 
1.41345 1.41345 1.41345 1.41345 1.41345 1.41345 1.41345 1.41345 1.36498 
1.41345 1.41345 1.36498 1.41345 1.41345 1.41345 1.41345 1.41345 1.36498 
1.36498 1.41345 1.41345 1.41345 1.41345 1.41345 1.36498 1.53914 1.53914 
1.36498 1.53914 1.41345 1.41345 1.53914 1.36498 1.6285 1.6285 1.36498 
1.6285 1.53914 1.53914 1.6285 1.34972 1.34972 1.34972 1.34972 1.34972 
1.34972 1.34972 1.34972 1.34972 1.34972 1.34972 1.34972 1.34972 1.31256 
1.31256 1.34972 1.31256 1.34972 1.34972 1.31256 1.34972 1.31256 1.31256 
1.34972 1.31256 1.31256 1.31256 1.31256 1.31256 1.31256 1.31256 1.31256 
1.31256 1.31256 1.31256 1.31256 1.31256 1.31256 1.31256 1.31256 1.31256 
1.31256 1.31256 1.31256 1.77271 1.47598 1.47598 1.77271 1.47598 1.47598 
1.47598 1.47598 1.47598 1.77271 1.77271 1.47598 1.47598 1.47598 1.47598 
1.47598 1.47598 1.47598 1.47598 1.47598 1.46651 1.31256 1.31256 1.46651 
1.31256 1.47598 1.47598 1.31256 1.47598 1.46651 1.46651 1.47598 1.47598 
1.46651 1.46651 1.47598 1.47598 1.47598 1.47598 1.47598 1.47598 1.47598 
1.47598 1.47598 1.47598 1.47598 1.47598 1.47598 1.46651 1.31256 1.31256 
1.46651 1.31256 1.46651 1.46651 1.31256 1.46651 1.46651 1.46651 1.46651 
1.77271 1.47598 1.47598 1.77271 1.47598 1.59684 1.59684 1.47598 1.59684 
1.59684 1.59684 1.59684 1.59684 1.47598 1.47598 1.59684 1.59684 1.59684 
1.59684 1.59684 1.59684 1.59684 1.59684 1.59684 1.47598 1.59684 1.59684 
1.47598 1.95066 1.41345 1.41345 1.95066 1.41345 2.06016 2.06016 1.41345 
2.06016 1.95066 1.95066 2.06016 2.06016 2.06016 2.06016 2.06016 1.41345 
2.06016 2.06016 1.41345 1.5236 2.06016 2.06016 1.5236 1.95066 1.41345 
1.41345 1.95066 1.86493 1.36498 1.36498 1.86493 1.41345 1.86493 1.86493 
1.41345 1.95066 1.86493 1.86493 1.95066 1.86493 1.55906 1.55906 1.86493 
1.55906 1.36498 1.36498 1.55906 1.55906 1.55906 1.55906 1.55906 1.55906 
1.6285 1.6285 1.55906 1.6285 1.55906 1.55906 1.6285 1.83177 1.55906 
1.55906 1.83177 1.55906 1.83177 1.83177 1.55906 1.55906 1.52013 1.52013 