# vtk DataFile Version 3.0
vtk output
ASCII
DATASET POLYDATA
POINTS 5620 float
102.23 177.902 203.429 102.588 177.747 203.117 101.873 178.036 203.674 
69.7257 158.605 198.489 69.3268 158.816 199.204 67.8962 159.64 200.635 
68.6115 159.153 199.725 68.6115 159.293 200.635 67.8962 159.868 201.736 
68.6115 159.415 201.35 69.3268 159.153 201.797 68.6115 159.54 202.065 
68.2499 159.868 202.78 69.3268 159.273 202.78 69.5071 159.262 203.614 
68.4555 159.868 203.496 66.4104 161.195 202.602 65.7503 162.014 202.891 
66.4656 161.299 203.171 65.9676 162.014 203.853 66.4656 161.665 204.569 
65.7503 162.366 204.211 67.1809 160.415 202.065 66.9543 160.584 202.065 
67.1809 160.584 202.763 67.8962 160.088 202.78 67.8962 160.237 203.496 
67.0146 161.192 204.747 69.3268 159.409 204.211 68.6115 159.869 204.208 
68.7158 159.868 204.926 69.3268 159.438 204.926 68.6717 159.945 205.617 
69.4091 159.358 205.614 68.7088 159.934 206.342 69.4033 159.29 206.338 
65.4662 162.729 204.211 66.4656 162.014 205.991 65.7503 162.543 204.926 
65.5983 162.729 204.926 65.0907 163.516 205.642 65.7503 162.729 205.72 
67.6065 160.584 204.211 67.8962 160.37 204.211 67.84 160.536 204.938 
68.6115 159.944 204.926 67.89 160.594 205.561 67.1857 161.289 205.904 
67.9655 160.635 206.376 68.7288 159.909 207.065 69.4054 159.155 207.076 
69.3268 159.153 207.426 68.7138 159.892 207.773 69.3263 159.042 207.768 
69.0665 159.153 208.503 69.3252 158.508 208.543 68.6654 159.898 208.487 
68.8652 159.153 209.218 68.6105 159.862 209.216 66.4656 162.266 207.072 
66.1113 162.729 207.43 67.4051 161.299 207.072 68.0297 160.659 207.105 
67.5287 161.299 207.787 68.0652 160.701 207.855 67.0238 161.846 207.787 
67.8399 161.054 208.467 68.205 160.584 208.503 68.2227 160.584 209.218 
67.8533 161.132 209.188 67.1809 161.824 208.503 65.7225 163.445 208.628 
67.1723 162.031 209.49 66.4773 162.743 209.111 76.1221 157.716 192.409 
77.4965 157.76 191.336 77.9103 157.559 192.051 77.195 157.529 192.766 
78.9832 157.543 191.336 80.4138 157.473 190.62 78.9832 157.379 192.051 
80.0562 157.346 191.336 81.4867 157.007 191.496 80.0562 157.162 192.051 
79.328 157.007 193.467 80.3978 156.913 192.751 80.7714 156.643 193.482 
78.6256 157.007 194.317 80.7714 156.489 194.197 79.6985 156.628 194.912 
76.4797 157.047 197.474 77.2194 157.012 196.428 77.195 156.831 198.131 
78.0891 156.717 197.237 77.866 156.939 195.916 78.6256 156.795 195.627 
78.6256 156.695 196.343 80.3021 156.355 195.627 80.5926 156.114 196.748 
79.1191 156.386 197.818 80.0562 156.132 197.773 74.0077 157.658 194.555 
72.9032 157.752 195.27 73.5302 157.66 195.27 75.5856 157.569 193.839 
75.7644 157.42 194.912 72.188 157.859 195.627 71.4727 157.996 196.7 
72.188 157.826 196.7 70.7574 158.199 197.058 70.7574 158.218 197.773 
71.4727 158.014 198.131 72.188 157.823 198.131 73.6185 157.579 196.343 
72.9032 157.675 197.058 74.3338 157.5 195.985 75.7644 157.343 195.627 
75.4068 157.324 196.343 73.6185 157.533 197.416 72.7593 157.692 197.773 
74.3338 157.41 197.416 75.4068 157.264 197.058 75.0491 157.249 198.131 
76.4797 157.464 193.839 77.9103 157.359 193.124 77.195 157.361 193.839 
76.4797 157.281 195.27 77.5526 157.193 194.555 78.9832 157.224 192.766 
78.6256 157.158 193.482 76.4797 157.158 196.343 82.202 157.126 190.62 
83.6326 156.946 190.436 82.9173 156.773 191.336 82.202 156.696 192.051 
83.9903 156.604 191.336 82.9173 156.56 192.051 83.9903 156.397 192.051 
85.4208 156.665 190.62 83.9903 157.073 189.922 85.4208 156.918 189.905 
86.8514 156.814 189.905 86.4938 157.105 189.19 86.8514 156.556 190.62 
85.0632 156.47 191.336 85.0632 155.983 193.124 85.7785 156.347 191.529 
86.4938 156.35 191.336 87.5667 157.065 189.19 88.282 156.772 189.905 
87.9244 156.512 190.62 88.6396 157.057 189.19 89.7126 157.094 189.19 
89.7126 156.795 189.905 88.9973 156.504 190.62 87.2091 156.311 191.336 
87.9244 155.964 192.409 87.2091 155.998 192.409 88.9973 156.286 191.282 
88.6396 155.834 192.766 89.3549 155.823 192.766 90.7855 157.168 189.19 
90.7855 156.856 189.905 90.0702 156.526 190.62 91.1432 156.59 190.62 
91.5008 157.245 189.19 91.8831 156.964 189.905 92.2161 156.69 190.62 
90.0702 155.939 192.409 90.5971 156.296 191.347 91.5008 156.349 191.336 
92.2161 156.35 191.499 88.9973 157.384 188.475 92.2161 158.098 187.759 
90.7855 157.617 188.263 92.6544 157.77 188.475 92.2161 157.342 189.19 
81.4867 156.65 192.766 82.202 156.5 192.766 81.4867 156.475 193.482 
82.9173 156.369 192.766 83.6326 155.994 193.839 82.9173 155.955 194.555 
82.202 155.954 195.27 81.4867 156.059 195.627 83.6326 155.739 194.912 
84.3479 155.887 193.839 85.7785 155.908 193.124 86.8514 155.71 193.5 
85.4208 155.569 194.54 86.4938 155.336 194.912 81.4867 155.87 196.7 
82.202 155.743 196.343 82.9173 155.72 195.627 83.638 155.498 195.99 
82.9175 155.505 196.701 83.6326 155.263 197.058 82.1305 155.556 197.533 
82.9173 155.297 197.773 83.6326 155.124 197.773 81.1375 155.7 198.526 
84.3479 155.513 195.368 85.0632 155.327 195.627 84.3479 155.274 196.343 
85.0632 155.148 196.343 85.7785 155.221 195.627 86.8514 155.114 195.627 
85.7785 155.048 196.343 86.8514 154.958 196.343 84.3479 155.115 197.058 
85.0632 154.996 197.058 84.3479 154.93 198.131 85.1178 154.868 197.773 
85.7785 154.911 197.058 86.437 154.861 197.033 85.7785 154.696 198.489 
87.9244 155.524 193.9 88.9973 155.397 194.197 87.5667 155.25 194.912 
88.9973 155.193 194.912 90.7855 155.728 193.124 90.0702 155.386 194.197 
91.5008 155.873 192.766 92.2161 155.805 193.124 91.5008 155.534 193.839 
90.7855 155.191 194.912 90.0702 155.181 194.912 91.8585 155.236 194.912 
88.282 155.036 195.627 88.282 154.889 196.343 89.3549 155.009 195.627 
89.7126 154.858 196.343 87.5667 154.674 197.773 88.282 154.759 197.058 
89.3549 154.725 197.058 88.9973 154.611 197.773 90.4279 155.009 195.627 
90.7855 154.719 197.058 91.8585 155.05 195.627 91.5008 154.876 196.343 
90.0702 154.716 197.058 90.4279 154.592 197.773 91.5008 154.734 197.058 
92.5737 154.776 197.058 91.8585 154.618 197.773 75.9238 157.051 198.667 
76.4797 156.862 199.562 77.5526 156.641 199.204 75.6434 157.007 200.196 
76.6585 156.667 201.35 78.4807 156.363 199.691 79.3409 156.177 199.204 
80.0562 156.043 198.489 80.0562 155.926 199.562 81.1643 155.568 199.562 
79.3409 156.02 200.992 80.0562 155.827 200.635 75.2968 157.012 201.35 
75.7644 156.792 202.423 75.0068 156.995 202.524 78.2264 156.292 201.35 
77.2881 156.41 202.512 76.1221 156.618 203.138 74.6915 156.983 203.496 
78.6256 156.108 202.423 77.9103 156.167 203.853 76.1221 156.53 203.853 
79.3409 155.91 202.423 80.0562 155.692 202.423 81.4867 155.18 203.496 
80.0562 155.619 203.853 78.6256 156.006 203.853 79.3409 155.823 203.853 
71.115 158.157 198.846 70.9775 158.252 199.562 72.188 157.858 199.562 
71.4727 158.152 200.635 70.3997 158.575 200.699 70.5281 158.448 199.919 
72.188 157.908 200.992 72.772 157.691 198.846 73.6185 157.503 198.489 
73.6185 157.487 199.562 74.3338 157.347 198.846 75.0491 157.188 199.204 
72.8055 157.696 199.919 73.6185 157.469 200.992 74.3338 157.299 200.277 
75.0491 157.134 200.277 71.4727 158.195 201.35 70.8711 158.487 202.065 
71.4727 158.227 202.065 72.188 157.931 202.065 70.0421 158.789 201.35 
70.0421 158.863 202.065 70.9006 158.505 202.78 72.188 157.923 202.78 
70.8264 158.547 203.495 71.4727 158.225 203.496 72.188 157.887 203.496 
70.0421 158.925 202.78 72.8366 157.7 202.065 73.6185 157.421 202.423 
74.3338 157.24 201.707 72.8084 157.688 202.78 72.7491 157.663 203.496 
73.6185 157.336 203.496 74.3338 157.171 202.78 75.0491 156.765 204.211 
74.3338 157 204.167 74.3338 156.859 204.926 73.5869 157.039 205.294 
75.0491 156.645 204.926 73.6185 156.716 206.357 72.8862 156.991 206.299 
74.3338 156.701 205.642 75.0491 156.518 205.642 74.3338 156.526 206.357 
75.0286 156.293 206.874 71.4801 156.914 207.631 72.0688 157.021 207 
72.188 156.489 207.787 71.4727 156.292 208.278 72.188 156.292 208.072 
72.188 155.966 208.503 71.068 157.007 207.787 70.7574 157.007 207.993 
72.9032 156.665 207.072 73.6185 156.475 207.072 73.0373 156.282 207.813 
73.5595 156.293 207.609 74.349 156.293 207.251 74.3338 156.151 207.787 
75.0491 156.106 207.787 72.188 155.388 209.218 72.188 155.577 208.982 
72.915 155.576 209.112 72.9032 155.934 208.503 73.6185 155.924 208.503 
73.3579 155.547 209.278 74.3338 155.934 208.503 75.0491 155.947 208.503 
74.3338 155.703 209.218 75.0491 155.782 209.218 75.7644 156.474 204.926 
76.7305 156.352 204.347 77.9103 156.065 205.284 76.3965 156.292 205.528 
76.4797 156.194 206.357 75.7287 156.292 206.32 77.195 156.161 205.642 
77.195 156.067 206.714 77.9103 155.966 206.714 80.7714 155.382 204.569 
80.0562 155.577 205.16 78.6256 155.921 205.284 79.3409 155.771 204.926 
79.3409 155.744 205.642 80.7714 155.368 205.642 79.991 155.571 206.714 
81.1291 155.275 206.357 78.6256 155.848 206.714 79.3409 155.713 206.714 
75.7644 156.181 207.072 76.4797 156.112 207.072 75.7644 156.07 207.787 
76.4797 155.982 208.145 77.195 155.937 208.145 77.9103 155.876 208.145 
75.7644 155.951 208.503 75.7644 155.832 209.218 76.4797 155.856 209.218 
77.195 155.855 209.218 77.9103 155.831 209.218 81.1291 155.297 207.072 
80.7714 155.414 207.787 78.6256 155.805 207.787 79.3409 155.697 207.787 
80.4228 155.518 208.42 80.2238 155.601 209.218 81.4867 155.383 209.218 
78.6256 155.789 208.503 79.3409 155.699 208.503 78.6256 155.785 209.218 
79.3409 155.716 209.218 71.4727 158.173 204.211 70.7976 158.539 204.229 
72.188 157.816 204.211 71.4727 158.07 204.926 70.6897 158.505 205.187 
72.1767 157.72 204.865 70.0421 158.986 204.211 69.9049 159.053 204.933 
70.7574 158.147 206.357 70.3881 158.438 206.357 70.6956 158.41 205.636 
72.188 157.524 205.642 71.5408 157.856 205.656 72.188 157.272 206.357 
71.4382 157.715 206.285 70.0421 158.889 205.642 70.0421 158.731 206.357 
72.9032 157.517 204.211 73.6185 157.243 204.211 72.9032 157.384 204.926 
72.9032 157.201 205.642 70.7588 157.77 207.139 70.0464 158.442 207.132 
[...]
POINT_DATA 5620
SCALARS scalars float
LOOKUP_TABLE default
1.45985 1.73233 1.59472 1.61384 1.61384 1.42995 1.54493 1.42995 1.32846 
1.32879 1.32879 1.15949 1.15949 1.14109 1.01863 1.12508 1.27245 1.3043 
1.22595 1.3043 1.23024 1.22073 1.21984 1.21984 1.21984 1.21984 1.12508 
1.23024 1.01863 1.10435 1.10435 1.20314 1.32553 1.20314 1.39216 1.37159 
1.22073 1.15089 1.22073 1.07548 1.07272 1.07548 1.2319 1.2319 1.2319 
1.10435 1.32295 1.32899 1.47088 1.35015 1.43913 1.43913 1.30333 1.39023 
1.39023 1.66756 1.3958 1.3958 1.3958 1.20612 1.04241 1.41733 1.39189 
1.23482 1.31182 1.20612 1.31182 1.25856 1.25856 1.09726 1.23482 1.07876 
0.994141 1.04665 1.18986 1.10517 1.10517 1.06434 0.97951 0.815155 0.97951 
0.867726 0.816417 0.795797 0.675718 0.729301 0.709742 0.745472 0.820237 0.793324 
1.47265 1.20974 1.56888 1.15311 0.984617 0.984617 0.980654 0.870823 1.0704 
1.36603 1.36435 1.22842 1.21073 1.21073 1.1415 1.03303 1.13388 1.28696 
1.13388 1.33425 1.42541 1.51615 1.28696 1.13388 1.13388 1.07626 1.10092 
1.10092 1.14529 1.28696 1.14529 1.26165 1.80001 0.908128 0.829513 0.908128 
0.941226 0.759727 0.97951 0.829513 1.20974 0.897779 1.05707 0.897779 0.847951 
1.05707 1.03158 1.18461 1.20331 1.03816 1.0942 1.10933 1.09313 1.03988 
1.20331 1.1419 1.20357 1.12679 1.1481 1.11185 1.06801 1.11185 1.17301 
1.17301 1.07546 1.03988 1.04339 1.01047 0.985603 0.950086 0.985776 1.25153 
1.25153 0.98824 1.06517 1.31399 1.14059 1.06517 0.962923 0.98824 1.06517 
1.15157 1.2095 1.27852 1.26103 1.24018 1.31399 0.847951 0.847951 0.820237 
1.03158 1.03329 0.973893 1.10357 0.995055 1.15904 1.13068 1.07699 1.06915 
1.28118 1.22334 1.32397 1.24726 1.27106 1.33471 1.21691 1.21691 1.13043 
1.17841 1.17841 1.1767 1.25568 1.44127 1.36803 1.44127 1.37158 1.19177 
1.27197 1.08805 1.4033 1.4033 1.20064 1.1288 1.27197 1.08805 1.11367 
1.01577 1.06133 1.12974 1.1285 1.1318 1.19472 1.24068 1.26498 1.30361 
1.26416 1.21302 1.34597 1.13052 1.0705 1.16684 1.142 1.01847 1.12652 
1.19709 1.19709 1.16267 1.1696 1.2057 1.0991 1.1696 1.1696 1.18635 
1.25064 1.18635 1.9317 1.78138 1.55872 2.22325 1.91297 1.42221 1.29846 
1.29846 1.28342 1.21382 1.87441 1.49545 2.04087 2.0559 1.8596 2.04397 
2.33792 2.13811 1.69156 2.30563 1.97096 1.987 1.96462 1.7714 1.96013 
1.94381 1.97096 1.836 1.51615 1.67168 1.75872 1.76984 1.76984 1.61384 
2.20064 1.75872 1.47607 2.1027 1.80001 1.80001 1.75872 2.40901 2.60724 
2.35177 1.76984 1.76741 1.76741 2.05517 1.45358 1.45358 1.33511 1.65839 
1.08297 1.266 1.65839 1.14109 2.10613 2.10613 1.93972 2.10613 1.4828 
1.56036 1.68518 1.68454 1.61423 1.61426 1.66371 1.68454 1.56817 1.76033 
1.61426 1.61882 1.45421 1.30883 1.75066 1.82894 1.59347 1.81657 1.59347 
1.59347 1.75066 1.78431 1.57727 1.30291 1.2956 1.2956 1.30291 1.27852 
1.41323 1.29258 1.29258 1.3038 1.2956 1.3038 1.3038 1.27852 1.4514 
1.44405 1.4514 1.61882 1.86805 1.86893 1.7161 1.63252 1.51589 1.80378 
1.69066 1.789 1.93824 1.93824 1.86893 1.93482 1.81402 1.72693 1.60073 
1.67077 1.789 1.62581 1.30883 1.49172 1.41323 1.60903 1.84003 2.00983 
1.4514 1.53231 1.53231 1.61457 1.81525 1.75613 1.80735 1.81103 1.59595 
1.80735 1.91478 2.3279 1.77965 1.68359 1.81038 1.81038 1.266 1.08651 
1.35989 1.26285 1.29726 1.40255 1.00663 1.00663 1.54594 1.43999 1.29726 
1.60513 1.45205 1.70153 1.54594 1.18632 1.43999 1.4828 1.56036 1.53379 
1.60513 1.57986 1.43913 1.59904 1.75066 1.59904 1.59904 1.75066 1.0253 
1.08739 1.0214 1.06571 1.19078 1.44989 1.63587 1.44989 1.44182 1.42917 
1.24447 1.55041 1.30934 1.51859 1.51859 1.80676 1.60266 1.8974 1.91866 
1.66583 1.71057 1.8576 1.94613 1.73664 1.66583 1.47548 1.68816 1.31483 
1.31483 1.6335 1.37401 1.3828 1.42938 1.39286 1.73255 1.39343 1.68483 
1.89259 1.68115 1.83548 1.64414 1.32428 1.48416 1.2839 1.34752 1.56003 
1.639 1.43717 1.51777 1.4671 1.43407 1.58638 1.57884 1.4519 1.63664 
1.68346 1.57884 1.83811 1.6872 1.75294 1.55522 1.72547 1.57118 1.33307 
1.48255 1.76685 1.67279 1.67279 1.69184 1.68706 1.74791 1.73996 1.72017 
1.61647 1.61647 1.55339 1.61385 1.60615 1.52451 1.52451 1.62324 1.96725 
1.82836 1.75753 2.3279 2.26732 1.99512 2.08033 2.08033 1.6266 1.6266 
1.81261 1.79137 1.62773 1.62773 1.79137 1.84691 1.95357 2.05591 1.94385 
1.94385 1.84845 1.90875 1.82269 1.9915 1.80499 1.94826 1.78204 1.65141 
1.75734 1.82627 1.62305 1.63608 1.61201 1.80822 1.73355 1.7415 1.72712 
1.89559 1.98521 1.7962 1.98521 1.9058 1.97878 1.97878 2.03191 1.80822 
2.02633 2.21341 2.17841 1.9818 2.13047 1.21018 1.16587 1.16587 1.16587 
1.1029 1.25306 1.3748 1.17061 1.17061 1.1274 1.15302 1.15404 1.14944 
1.13925 1.1489 1.15128 1.26498 1.1489 1.13925 1.2215 1.16386 1.18654 
1.17916 1.28897 1.28897 1.19018 1.20267 1.19601 1.17589 1.19018 1.14325 
1.14325 1.24018 1.15449 1.18795 1.09275 1.19018 1.12378 1.16732 1.03902 
1.04757 1.04757 1.05531 1.05531 1.08314 1.08314 1.055 1.03902 1.03902 
1.08514 1.10523 1.1029 1.1599 1.1489 1.09697 1.08514 1.10386 1.10386 
1.14049 1.17916 1.04757 1.07392 1.10413 1.16786 1.08514 1.16786 1.17529 
1.18847 1.27388 1.28858 1.27388 1.35164 1.35164 1.23003 1.1029 1.1029 
1.10413 1.10413 1.28858 1.17544 1.22988 1.22988 1.1274 1.13791 1.22444 
1.1873 1.26026 1.22444 1.24188 1.33532 1.33532 1.26656 1.26656 1.26793 
1.26793 1.12997 1.22724 1.26656 1.22724 1.2936 1.2936 1.14049 1.17529 
1.17529 1.20142 1.21185 1.27325 1.17185 1.27325 1.20142 1.21185 1.21185 
1.13801 1.17137 1.27325 1.23003 1.08875 1.06435 1.12997 1.08361 1.06435 
1.01297 1.05046 1.07391 1.05046 0.958666 1.01297 0.958666 0.958666 0.839469 
1.36946 1.34399 1.34754 1.28125 1.30006 1.27249 1.20984 1.26029 1.26029 
0.998175 1.17355 1.11383 1.14828 1.14659 1.07288 1.22824 1.29174 1.10823 
1.04875 1.07356 0.889676 0.990152 0.89427 1.16573 1.18654 1.13565 1.02258 
1.10158 1.02129 0.81693 0.951294 0.794736 0.794736 1.05046 0.954803 0.946503 
0.949369 0.90065 0.963967 0.865255 0.954803 0.888189 0.935904 0.963967 0.936839 
0.790306 0.760122 0.843355 0.909524 1.03332 1.02912 1.18107 1.18548 0.918636 
0.934611 1.01187 0.934611 0.918636 0.98114 1.12178 0.990169 1.20066 1.20066 
1.30378 1.00383 0.881086 1.00383 1.00383 0.842946 0.791818 0.881086 0.791818 
0.783583 0.783583 0.785583 0.783583 0.906396 0.842946 0.869442 0.84277 0.869442 
0.869442 1.11633 1.11633 1.22194 1.18786 1.01958 1.22194 1.26276 1.17057 
1.18786 0.969935 1.06 1.11932 0.969935 0.979199 0.979199 0.979199 0.979199 
1.03118 1.06 1.03752 1.09012 1.09012 1.09423 1.09423 0.865255 0.924802 
0.865027 0.877333 0.936839 0.865027 0.865027 0.824042 0.918632 0.927624 0.918632 
0.926905 0.914997 0.990169 0.914997 0.788619 0.788619 0.788619 0.809688 1.10362 
1.17538 1.25931 1.25931 1.04875 1.29749 1.33687 1.15986 1.21115 1.14977 
1.06194 1.25844 1.25844 1.18869 1.25603 1.22739 1.50268 1.32745 1.32745 
1.41247 1.61523 1.33364 1.58161 1.59055 1.72598 1.81107 1.95066 1.88385 
1.88385 1.34804 1.34804 1.4184 1.4184 1.37161 1.49144 1.48929 1.4133 
1.4133 1.26229 1.3197 1.12078 1.04774 1.12078 1.00012 1.3197 1.12078 
1.26229 1.3277 1.14489 1.19186 1.40488 1.19186 1.53151 1.66699 1.43 
1.38917 1.62348 1.38917 1.84003 1.84003 1.96325 2.1399 1.3277 1.3277 
1.62137 1.75395 1.40488 1.75395 1.76994 1.95001 1.95001 2.1399 1.97084 
1.93719 1.67135 1.97084 1.58385 1.58161 1.72403 1.83107 1.80109 1.87819 
1.77549 2.09122 2.03228 2.10562 2.00912 2.31724 2.07986 2.02296 1.71536 
1.76118 1.92454 2.1015 2.48004 2.51855 2.27974 2.53912 2.66557 2.71261 
2.09513 2.17388 2.24052 2.07067 2.00546 2.0496 2.07067 2.09462 2.1399 
1.97084 2.16926 1.87625 1.97084 1.58385 1.65442 1.65442 2.04203 2.01008 
2.01008 1.76186 1.65442 1.76186 2.26066 2.46642 2.26309 2.46642 2.41718 
2.64809 2.55884 2.39586 2.25135 2.34013 1.66232 1.71297 2.0968 1.97738 
2.25052 2.29243 1.8033 1.8033 1.29644 1.42258 1.17858 0.917498 0.917498 
1.03525 1.19186 1.51852 1.42258 1.51852 1.28448 1.67135 1.46612 1.46612 
1.40477 1.58385 1.86452 1.59664 1.86452 1.94701 2.59482 2.59482 3.0141 
1.59664 1.59887 1.94701 2.49584 1.66232 1.95489 1.91696 2.31349 2.20441 
2.26035 1.98424 1.87083 1.44024 1.70451 1.82191 1.41119 1.19934 2.49584 
1.56676 1.8191 1.20878 1.23525 1.06659 1.06659 1.06659 1.07503 0.917194 
1.00646 1.00646 1.00646 1.14497 1.2334 1.15174 1.15174 1.2334 1.50985 
1.44258 1.44258 1.24123 1.38289 1.58693 1.58693 1.50985 1.75903 1.30976 
1.27196 1.27196 1.25168 1.38289 1.39627 1.58693 1.24 1.12154 1.01287 
1.12154 1.21379 1.07876 1.24835 1.13209 1.21379 1.24835 1.79442 2.00861 
1.90947 1.90947 1.20549 1.25193 1.86827 1.90144 1.90144 1.4584 1.68269 
1.4584 1.8992 1.77091 1.8992 1.6919 1.68269 1.8992 1.86827 1.75279 
1.60886 1.60886 1.89346 1.83571 1.89346 1.75279 1.77858 1.75279 1.75279 
1.53438 1.77858 1.77858 1.72684 1.77091 1.69274 1.69274 1.69274 1.90818 
1.93435 1.86609 1.60886 1.53438 1.55335 1.5175 1.56708 1.56708 1.86609 
1.73338 1.92509 1.59784 1.81169 1.81169 1.13851 1.06528 1.48876 1.22579 
1.20549 1.20549 1.50694 1.48876 1.50694 1.50694 1.13851 1.34232 1.34232 
1.65313 1.32454 1.32454 1.86855 1.65313 1.86855 1.86855 1.65313 1.7235 
2.07875 2.07875 1.23519 1.23519 1.14907 1.34615 1.4849 1.92974 2.07875 
2.07875 1.7235 2.00672 2.09169 1.88299 2.00614 1.94874 1.29233 1.64769 
1.13033 1.13033 1.00435 1.00435 1.29233 1.29233 1.09023 1.00435 1.09023 
2.07121 1.64769 2.07121 2.07121 2.00445 1.83946 1.83946 1.83946 1.64769 
1.3851 1.3851 1.38317 1.44865 1.44865 1.44865 1.331 1.00435 1.26293 
1.23519 1.43273 1.26293 1.26293 1.70968 1.7235 1.70968 1.38317 1.82284 
1.82284 1.65157 1.38317 1.59908 1.62286 1.59908 1.9837 1.95381 1.99963 
1.76769 2.00216 2.04959 1.99963 1.96306 1.4584 1.61106 1.97024 1.97024 
1.6919 1.61106 1.89332 1.6919 1.8429 1.89332 2.03612 1.82635 2.29155 
1.97024 1.97024 2.24239 2.29155 2.25541 2.29155 2.24239 2.37061 2.18242 
2.03612 1.91324 2.18808 2.18808 1.9594 1.67624 1.84415 1.93435 1.80402 
1.85717 1.99116 2.1564 1.92509 1.78112 1.87294 1.84691 1.85717 1.90289 
1.8561 1.90289 2.10887 1.83882 1.65326 1.70527 1.92646 2.05967 2.30112 
1.9399 2.37774 2.25541 2.01556 2.20141 1.97306 2.04776 2.02264 1.98417 
1.98417 1.83848 1.68969 1.71644 1.6402 2.16723 1.92572 1.55591 1.61253 
2.21771 2.41266 2.33455 2.35146 2.07394 1.62194 1.78666 1.9624 1.65208 
1.90184 1.93917 1.93993 1.869 1.65585 2.30657 1.52126 1.52126 1.55884 
1.94652 1.7489 2.67652 1.94652 2.49303 2.76917 2.49303 2.42758 1.75327 
1.75327 1.7489 1.86165 1.97077 1.93993 1.91143 1.92544 2.04857 2.10677 
2.10359 2.27364 2.27364 2.21552 2.21552 2.0921 2.4973 2.0921 1.96739 
2.62968 1.3748 1.19653 1.20728 1.17577 1.1377 1.1377 1.31304 1.23474 
1.23444 1.22432 1.36879 1.3917 1.34567 1.34567 1.36307 1.23223 1.33597 
1.22432 1.35667 1.35667 1.35796 1.27168 1.34822 1.23993 1.35301 1.23641 
1.12886 1.20086 1.35301 1.42668 1.30186 1.36426 1.36426 1.77443 1.5604 
1.23269 1.41384 1.08655 1.64483 1.5506 1.23955 1.14255 1.30122 1.53631 
1.14255 1.33073 1.55811 1.56661 1.39121 1.77525 1.64922 1.72769 1.8233 
1.72729 1.25874 1.61845 1.68193 1.77525 1.64922 1.89857 1.35986 1.71529 
1.28218 1.62424 1.80269 1.52368 1.80613 1.63667 1.53825 1.60807 1.62279 
1.86255 1.86255 1.59429 1.57842 1.64469 1.30378 1.36323 1.38404 1.36323 
1.26276 1.17057 1.31295 1.17005 1.26422 1.17005 1.18215 1.10918 1.11759 
1.07656 1.07656 1.21641 1.11304 1.1527 1.26613 1.2619 1.1527 1.43207 
1.5096 1.33572 1.33572 1.29828 1.5096 1.50505 1.4281 1.44244 1.4281 
1.26613 1.35133 1.41985 1.3345 1.35133 1.61361 1.70038 1.80886 1.61312 
1.42472 1.42472 1.52441 1.4646 1.51461 1.48072 1.53022 1.28781 1.21641 
1.28781 1.15381 1.29653 1.30776 1.30776 1.36133 1.36133 1.14263 1.27634 
1.37839 1.42653 1.42653 1.27841 1.15078 1.41605 1.41605 1.46255 1.46255 
1.54855 1.48259 1.56323 1.54855 1.56323 1.44052 1.25879 1.3758 1.4716 
1.27516 1.11425 1.11425 1.44052 1.5046 1.5046 1.5046 1.52659 1.54797 
1.43528 1.38691 1.43528 1.43528 1.33915 1.33915 1.36166 1.36166 1.25854 
1.81692 1.92174 1.9485 1.78352 1.8191 1.67848 1.55762 1.63672 1.52441 
1.63672 1.54663 1.48072 1.53022 1.47997 1.67848 1.51852 1.97407 1.74236 
1.58706 1.5043 1.41479 1.5043 1.58706 1.58706 1.70054 1.62231 1.75148 
1.75148 1.74236 1.32961 1.44973 1.64469 1.23344 1.30015 1.10261 1.09338 
1.41479 1.3813 1.20061 1.36353 1.58488 1.58488 1.55915 1.47029 1.55915 
1.51591 1.39533 1.73163 1.87691 1.87935 1.91301 1.91301 1.87935 1.6838 
1.8022 1.84353 1.84338 1.84639 1.87692 1.45423 1.74273 1.88041 1.88041 
1.83826 1.88696 1.83549 1.77497 1.69283 1.77497 1.77451 1.84338 1.87695 
1.87695 1.87695 1.84639 1.77238 1.77789 1.78324 1.58347 1.78324 1.62835 
1.72684 1.62835 1.74148 1.77238 1.70904 1.55527 1.55527 1.65277 1.4483 
1.42795 1.58071 1.42795 1.77439 1.82143 1.42575 1.42575 1.52421 1.43594 
1.43594 1.47321 1.70884 1.80789 1.66487 1.80789 1.61196 1.55305 1.47427 
1.47439 1.58347 1.4331 1.33117 1.29357 1.29357 1.27306 1.37457 1.36411 
1.5806 1.43485 1.47948 1.3613 1.41044 0.972911 1.13742 1.00326 0.968594 
1.05637 1.06096 1.15271 1.29965 1.15734 1.2971 1.2149 1.29965 1.15714 
1.14094 1.15714 1.17838 1.21766 1.25199 1.40265 1.58662 1.63925 1.57658 
1.57658 1.48818 1.40265 1.27857 1.63698 1.45126 1.20642 1.31811 1.31511 
1.61521 1.44917 1.45364 1.38634 1.31085 1.41599 1.6906 1.88814 1.84511 
1.36701 1.32523 1.59391 1.72983 1.70681 1.73997 1.76141 1.38402 1.49202 
1.37936 1.46114 1.75865 1.89989 1.37936 1.34683 1.67103 1.47146 1.47146 
1.78449 1.61343 1.21361 1.28468 1.28468 1.29735 1.18147 1.21361 1.23641 
1.31811 1.50922 1.7183 1.46104 1.23641 1.49072 1.43873 1.4896 1.34509 
1.68613 1.50703 1.66052 1.61383 1.62855 1.44917 1.19169 1.34781 1.32477 
1.19169 1.34781 1.31948 1.31085 1.23956 1.2341 1.17823 1.12202 1.24866 
1.23956 1.23644 1.80531 1.54437 1.38643 1.75348 1.80531 1.7183 1.84858 
1.38643 1.28384 1.24186 1.24461 1.56521 1.84858 1.56521 1.28384 1.60241 
1.42089 1.46534 1.40223 1.52985 1.35296 1.40518 1.72862 1.67099 1.51083 
1.608 1.5714 1.45135 1.45135 1.41249 1.51083 1.608 1.51083 1.54169 
1.51403 1.41249 1.42744 1.38386 1.59164 2.17177 1.79841 1.77769 1.79841 
1.95556 2.19351 2.13402 2.19387 2.13402 1.88684 1.75366 2.11741 2.11741 
1.56806 1.93755 2.11741 2.29766 2.23327 1.93755 1.83592 2.01099 2.32591 
2.57069 2.30112 2.53708 2.73238 2.58551 2.37316 2.14306 1.75725 2.2651 
2.364 1.89637 1.46743 1.82141 1.26514 1.36411 1.3613 1.47125 1.72354 
1.53626 1.30643 1.30643 1.39363 1.50487 1.50487 1.6041 1.70975 1.48379 
1.28916 1.65489 1.60625 1.65489 1.48424 1.41387 1.46104 1.27613 1.43179 
1.48485 1.48485 1.85987 1.73233 1.73233 1.59472 1.59472 1.29447 2.82017 
2.82017 2.56323 2.48956 2.48956 2.40376 2.37655 2.51985 2.38831 2.19414 
1.78102 2.17165 2.23562 2.23562 2.54579 2.54328 2.54328 2.69247 2.57431 
2.67789 2.61767 2.62247 2.5482 2.70723 2.75318 2.59961 2.60905 2.59279 
2.75741 1.54184 1.77835 1.82016 1.91408 2.02026 2.34169 1.99502 1.76556 
1.82016 1.9047 1.4281 1.7314 1.91199 1.74117 1.93274 2.10482 1.96345 
1.68376 1.81114 1.96433 1.63868 1.55236 1.88704 2.36515 1.46708 1.89491 
1.55035 1.23124 1.28973 1.09255 1.13761 1.18663 1.39037 1.32935 1.22615 
1.37157 1.28883 1.11258 1.18469 1.32935 1.58392 1.52533 1.58392 1.32935 
1.68469 1.75844 1.67008 1.73645 1.69253 1.67353 1.62673 1.52452 1.29447 
1.52533 1.73158 1.67353 1.62606 1.48183 1.69538 1.69538 1.85286 1.81125 
1.70176 1.81125 1.85286 1.88695 1.70176 1.48183 1.46172 1.46172 1.44138 
1.37157 1.84248 1.65523 2.12536 1.92779 2.20011 1.92779 2.03041 2.20011 
1.88695 1.23845 1.43023 1.7456 1.44747 1.19607 1.44747 1.19607 1.20077 
2.12536 2.4984 2.4984 2.27555 2.27555 2.27555 2.14084 2.28018 2.40624 
2.14084 1.98315 2.03253 2.03253 2.28018 1.97363 1.80017 1.80017 1.81907 
1.42988 1.49787 1.50492 1.32938 1.48183 1.2341 1.30242 1.21279 1.19639 
1.30242 1.12994 1.28759 1.41249 1.2082 1.37422 1.37422 1.29669 1.12994 
1.19135 1.47162 1.58662 1.51063 1.48144 1.45851 1.41708 1.48144 1.48818 
1.37326 1.40351 1.27196 1.37326 1.41786 1.18096 1.12564 1.25168 1.25479 
1.09692 1.09692 1.09692 1.39627 1.25479 1.33095 1.63412 1.50417 1.33095 
1.09726 1.15044 1.15044 0.984456 0.971475 0.97568 1.50417 1.24438 1.24438 
1.24438 1.09231 0.997074 1.06869 1.01934 1.09231 1.06869 1.09636 1.48313 
1.48313 1.48313 1.44295 1.47169 1.09231 1.21454 1.21454 1.21454 1.21454 
1.21454 1.64064 1.44295 1.44884 1.44295 1.44884 1.44988 1.66694 1.44988 
1.44884 1.50192 1.44884 1.50192 1.50192 1.56575 1.56575 1.56575 1.56575 
1.56575 1.5635 1.56575 1.56069 1.56069 1.56575 1.62582 1.62582 1.62582 
1.62582 1.62582 1.24499 1.28679 1.41784 1.32764 1.32764 1.32764 1.23705 
1.23705 1.34585 1.34585 1.19477 1.41711 1.22223 1.22223 1.22223 1.49228 
1.49228 1.19091 1.36387 1.11747 1.23259 1.23259 1.43644 1.11747 1.24321 
1.2109 1.38406 1.46378 1.56152 1.46314 1.44092 1.46314 1.44092 1.44092 
1.24086 1.44092 1.28252 1.28252 1.28252 1.28252 1.25684 1.25684 1.25684 
1.58047 1.44405 1.58047 1.6262 1.44405 1.6262 1.43792 1.80428 1.78869 
1.78869 1.82351 1.78869 1.62319 1.78869 1.76895 1.82351 1.78806 1.78806 
1.71631 1.75954 1.75954 1.62441 1.67637 1.67637 1.67637 1.83948 1.67637 
1.83948 1.43792 1.59307 1.62319 1.80973 1.59307 1.87221 1.80973 1.93013 
1.76895 1.80973 1.81093 1.93013 1.82336 1.81093 1.82336 2.44852 1.92479 
1.93653 1.89983 2.01809 2.20496 2.24118 2.20004 2.05067 1.91106 1.91106 
2.13439 2.2519 2.2519 2.2519 1.76096 2.04738 1.82991 1.85744 2.12623 
2.04738 2.12623 2.10847 2.10847 1.92477 2.23498 2.32034 2.38737 2.24998 
2.48996 2.48635 2.62347 2.37856 2.38793 2.35151 2.38793 2.66356 2.46878 
2.55301 1.6678 1.75633 1.9689 1.86582 1.70617 1.90786 1.86582 1.90786 
2.02473 2.21324 2.19589 2.20845 2.27843 2.16013 2.29203 2.27843 2.29203 
1.94356 1.94356 1.94356 2.10387 1.95804 1.79642 1.77816 1.79642 1.77816 
1.79642 2.20845 2.20845 1.95804 2.10737 2.10737 2.10737 2.10737 2.12493 
2.12493 1.78359 2.12493 1.80608 1.80608 2.12242 2.35502 2.20456 2.35032 
2.35502 2.35151 2.39636 2.25556 2.32818 2.32818 2.32818 2.32818 2.39636 
2.25556 2.23394 2.29989 2.25556 2.2317 2.35206 2.35206 2.2317 2.15783 
2.18286 1.94173 2.05276 2.06174 1.53427 1.53427 1.61725 1.61725 1.34585 
1.65192 1.65192 1.34585 1.19477 1.56211 1.56211 1.78359 1.81706 1.61011 
1.81706 1.81706 1.25301 2.05276 1.84409 2.02005 2.06174 1.69234 1.81706 
1.67205 1.61441 1.84409 1.69234 1.542 1.94173 2.18286 2.02179 1.65523 
1.5107 1.66694 2.24118 2.35578 2.51517 2.51517 2.16425 2.38976 2.49028 
2.46003 2.28285 2.3636 2.3636 1.99018 1.99018 1.99018 2.49028 2.25365 
2.39752 2.36786 2.25365 1.9704 2.62347 2.50024 2.62127 2.47164 2.41886 
2.36941 2.27903 2.23875 2.12464 1.78479 1.92836 1.78479 1.92836 2.13717 
2.13717 1.9704 1.97076 2.14891 2.38476 2.13375 2.13375 2.06606 2.21191 
1.98949 2.00031 2.02652 2.26316 2.31842 2.01613 2.12314 2.31842 2.02164 
2.02164 2.10565 1.7573 1.75289 1.64231 2.38782 2.18286 2.19706 2.29458 
2.04184 2.04934 2.17941 2.06213 1.97045 1.83879 1.84305 1.8702 1.84305 
1.70285 1.83879 1.57544 1.65592 1.87568 1.59353 2.12134 1.91733 1.60913 
1.57898 1.75573 1.71265 1.64786 1.86445 1.54693 1.57404 1.52305 1.56489 
1.52648 1.52648 1.51695 1.60549 1.53256 1.5045 1.52608 1.49623 1.51692 
1.53727 1.53727 1.71454 1.61725 1.4136 1.65192 1.65192 1.46228 1.46228 
1.46228 1.4136 1.4136 1.4136 1.25301 1.37234 1.46228 1.46228 1.46228 
1.38424 1.38424 1.38424 1.56211 1.56211 1.61011 1.61011 1.67205 1.44153 
1.44153 1.55175 1.66123 1.45538 1.45538 1.42366 1.56515 1.65905 1.77932 
1.69304 1.25301 1.38406 1.25301 1.37234 1.38516 1.38516 1.38212 1.38516 
1.38516 1.38212 1.38212 1.38212 1.35708 1.38516 1.56152 1.35109 1.35109 
1.23953 1.35708 1.23953 1.23953 1.2985 1.35109 1.35109 1.35109 1.23953 
1.17667 1.17667 1.24086 1.24086 1.1538 1.24086 1.1538 1.1538 1.42366 
1.50594 1.2985 1.50594 1.66484 1.66134 1.34024 1.61737 1.34024 1.45276 
1.61737 1.61737 1.67205 1.64056 1.542 1.542 1.66123 1.64056 1.57872 
1.57872 1.80747 1.7638 1.7638 1.75749 1.60259 1.75749 1.47553 1.47553 
1.62859 1.60259 1.85166 1.81151 1.81151 2.07688 1.63781 1.87577 1.65886 